<?xml version="1.0"?>
<VTKFile type="PolyData" version="0.1" byte_order="LittleEndian" header_type="UInt32" compressor="vtkZLibDataCompressor">
  <PolyData>
    <Piece NumberOfPoints="24" NumberOfVerts="0" NumberOfLines="0" NumberOfStrips="0" NumberOfPolys="6">
      <PointData Normals="Normals" TCoords="TCoords">
        <DataArray type="Float32" Name="Normals" NumberOfComponents="3" format="ascii" RangeMin="1" RangeMax="1">
          -1 0 0 -1 0 0
          -1 0 0 -1 0 0
          1 0 0 1 0 0
          1 0 0 1 0 0
          0 -1 0 0 -1 0
          0 -1 0 0 -1 0
          0 1 0 0 1 0
          0 1 0 0 1 0
          0 0 -1 0 0 -1
          0 0 -1 0 0 -1
          0 0 1 0 0 1
          0 0 1 0 0 1
        </DataArray>
        <DataArray type="Float32" Name="TCoords" NumberOfComponents="2" format="ascii" RangeMin="0.70710678119" RangeMax="2.1213203436">
          -0.5 -0.5 1.5 -0.5 -0.5 1.5
          1.5 1.5 0.5 -0.5 -1.5 -0.5
          0.5 1.5 -1.5 1.5 0.5 0.5
          0.5 -1.5 -1.5 0.5 -1.5 -1.5
          -0.5 0.5 -0.5 -1.5 1.5 0.5
          1.5 -1.5 0.5 -0.5 -1.5 -0.5
          0.5 1.5 -1.5 1.5 -0.5 -0.5
          1.5 -0.5 -0.5 1.5 1.5 1.5
        </DataArray>
      </PointData>
      <CellData>
      </CellData>
      <Points>
        <DataArray type="Float32" Name="Points" NumberOfComponents="3" format="ascii" RangeMin="1.7320508076" RangeMax="1.7320508076">
          -1 -1 -1 -1 -1 1
          -1 1 -1 -1 1 1
          1 -1 -1 1 -1 1
          1 1 -1 1 1 1
          -1 -1 -1 -1 -1 1
          1 -1 -1 1 -1 1
          -1 1 -1 -1 1 1
          1 1 -1 1 1 1
          -1 -1 -1 1 -1 -1
          -1 1 -1 1 1 -1
          -1 -1 1 1 -1 1
          -1 1 1 1 1 1
        </DataArray>
      </Points>
      <Verts>
        <DataArray type="Int64" Name="connectivity" format="ascii" RangeMin="1e+299" RangeMax="-1e+299">
        </DataArray>
        <DataArray type="Int64" Name="offsets" format="ascii" RangeMin="1e+299" RangeMax="-1e+299">
        </DataArray>
      </Verts>
      <Lines>
        <DataArray type="Int64" Name="connectivity" format="ascii" RangeMin="1e+299" RangeMax="-1e+299">
        </DataArray>
        <DataArray type="Int64" Name="offsets" format="ascii" RangeMin="1e+299" RangeMax="-1e+299">
        </DataArray>
      </Lines>
      <Strips>
        <DataArray type="Int64" Name="connectivity" format="ascii" RangeMin="1e+299" RangeMax="-1e+299">
        </DataArray>
        <DataArray type="Int64" Name="offsets" format="ascii" RangeMin="1e+299" RangeMax="-1e+299">
        </DataArray>
      </Strips>
      <Polys>
        <DataArray type="Int64" Name="connectivity" format="ascii" RangeMin="0" RangeMax="23">
          0 1 3 2 4 6
          7 5 8 10 11 9
          12 13 15 14 16 18
          19 17 20 21 23 22
        </DataArray>
        <DataArray type="Int64" Name="offsets" format="ascii" RangeMin="4" RangeMax="24">
          4 8 12 16 20 24
        </DataArray>
      </Polys>
    </Piece>
  </PolyData>
</VTKFile>
